TACC:  Starting up job 406096 
TACC:  Starting parallel tasks... 
 argument  1 = flops.nw.ccsd
                                         
                                         
 
 
              Northwest Computational Chemistry Package (NWChem) 6.6
              ------------------------------------------------------
 
 
                    Environmental Molecular Sciences Laboratory
                       Pacific Northwest National Laboratory
                                Richland, WA 99352
 
                              Copyright (c) 1994-2015
                       Pacific Northwest National Laboratory
                            Battelle Memorial Institute
 
             NWChem is an open-source computational chemistry package
                        distributed under the terms of the
                      Educational Community License (ECL) 2.0
             A copy of the license is included with this distribution
                              in the LICENSE.TXT file
 
                                  ACKNOWLEDGMENT
                                  --------------

            This software and its documentation were developed at the
            EMSL at Pacific Northwest National Laboratory, a multiprogram
            national laboratory, operated for the U.S. Department of Energy
            by Battelle under Contract Number DE-AC05-76RL01830. Support
            for this work was provided by the Department of Energy Office
            of Biological and Environmental Research, Office of Basic
            Energy Sciences, and the Office of Advanced Scientific Computing.


           Job information
           ---------------

    hostname        = c477-111.stampede2.tacc.utexas.edu
    program         = /scratch/01032/hliu/works/nwchem_blue/nwchem-src-common512/bin/LINUX64/nwchem
    date            = Wed Nov  8 02:15:03 2017

    compiled        = Fri_Sep_22_14:11:08_2017
    source          = /scratch/01032/hliu/works/nwchem_blue/nwchem-src
    nwchem branch   = Development
    nwchem revision = 27746
    ga revision     = 10594
    input           = flops.nw.ccsd
    prefix          = gg-stack.
    data base       = ./gg-stack.db
    status          = startup
    nproc           =     5120
    time left       =     -1s



           Memory information
           ------------------

    heap     =   26214398 doubles =    200.0 Mbytes
    stack    = 3276799995 doubles =  25000.0 Mbytes
    global   =  196608000 doubles =   1500.0 Mbytes (distinct from heap & stack)
    total    = 3499622393 doubles =  26700.0 Mbytes
    verify   = no 
    hardfail = no 


           Directory information
           ---------------------
 
  0 permanent = .
  0 scratch   = .
 
 
 
 
                                NWChem Input Module
                                -------------------
 
 
                                     GG stack
                                     --------

 Scaling coordinates for geometry "geometry" by  1.889725989
 (inverse scale =  0.529177249)

 C1  symmetry detected

          ------
          auto-z
          ------
  autoz: The atoms group into disjoint clusters
 cluster   1:    1    2    3    4    5    6    7    8    9   10   11 
                12   25   26   27   28 
 cluster   2:   13   14   15   16   17   18   19   20   21   22   23 
                24   29   30   31   32 
 Connecting clusters   1   2 via atoms    6   19 r = 3.26
  autoz: regenerating connections with new bonds
 
 
                             Geometry "geometry" -> ""
                             -------------------------
 
 Output coordinates in angstroms (scale by  1.889725989 to convert to a.u.)
 
  No.       Tag          Charge          X              Y              Z
 ---- ---------------- ---------- -------------- -------------- --------------
    1 H                    1.0000    -2.14700084     2.83214631    -1.50479802
    2 N                    7.0000    -1.33075480     2.69705931    -0.79380230
    3 C                    6.0000    -1.21422567     3.44415102     0.34412429
    4 N                    7.0000    -0.06671794     3.20498345     0.97851761
    5 C                    6.0000     0.55410399     2.18594728     0.24618271
    6 C                    6.0000     1.79166719     1.53498723     0.39541526
    7 O                    8.0000     2.62259060     1.64532463     1.32190215
    8 N                    7.0000     2.06198154     0.59376963    -0.61216082
    9 C                    6.0000     1.20986191     0.38323365    -1.64234903
   10 N                    7.0000     1.57579126    -0.42682177    -2.58760133
   11 N                    7.0000     0.03635396     0.97094412    -1.85336682
   12 C                    6.0000    -0.21367448     1.89839270    -0.87543691
   13 H                    1.0000    -2.96343273    -1.97547579    -1.67931655
   14 N                    7.0000    -2.59422536    -1.45410090    -0.81840010
   15 C                    6.0000    -3.09683421    -0.42260178    -0.11856662
   16 N                    7.0000    -2.35076785    -0.07418140     0.93105342
   17 C                    6.0000    -1.22955910    -0.89316972     0.82882794
   18 C                    6.0000    -0.08424878    -0.99479193     1.64110449
   19 O                    8.0000     0.21849949    -0.26784440     2.61634537
   20 N                    7.0000     0.84477976    -1.95889489     1.26699024
   21 C                    6.0000     0.59053416    -2.76591493     0.21654375
   22 N                    7.0000     1.55065297    -3.67987828    -0.00772587
   23 N                    7.0000    -0.50146948    -2.75887116    -0.56309363
   24 C                    6.0000    -1.34363903    -1.73629383    -0.23529635
   25 H                    1.0000     1.04348906    -0.63415799    -3.40913773
   26 H                    1.0000     2.43353619    -0.94122609    -2.60767210
   27 H                    1.0000    -1.96826998     4.15075738     0.69129377
   28 H                    1.0000     2.90887393     0.06335756    -0.56732416
   29 H                    1.0000     2.38931713    -3.77970842     0.52892426
   30 H                    1.0000     1.53770752    -4.36481296    -0.73617484
   31 H                    1.0000     1.69992780    -2.05344486     1.77657745
   32 H                    1.0000    -4.02615313     0.08102803    -0.38452220
 
      Atomic Mass 
      ----------- 
 
      H                  1.007825
      N                 14.003070
      C                 12.000000
      O                 15.994910
 

 Effective nuclear repulsion energy (a.u.)    1907.8102375897

            Nuclear Dipole moment (a.u.) 
            ----------------------------
        X                 Y               Z
 ---------------- ---------------- ----------------
     0.0000000000     0.0000000000     0.0000000000
 


                                Z-matrix (autoz)
                                -------- 

 Units are Angstrom for bonds and degrees for angles
 
      Type          Name      I     J     K     L     M      Value
      ----------- --------  ----- ----- ----- ----- ----- ----------
    1 Stretch                  1     2                       1.09088
    2 Stretch                  2     3                       1.36624
    3 Stretch                  2    12                       1.37565
    4 Stretch                  3     4                       1.33283
    5 Stretch                  3    27                       1.09014
    6 Stretch                  4     5                       1.40006
    7 Stretch                  5     6                       1.40627
    8 Stretch                  5    12                       1.38932
    9 Stretch                  6    19                       3.26460
   10 Stretch                  6     7                       1.24939
   11 Stretch                  6     8                       1.40505
   12 Stretch                  8     9                       1.35341
   13 Stretch                  8    28                       1.00029
   14 Stretch                  9    10                       1.29753
   15 Stretch                  9    11                       1.32931
   16 Stretch                 10    25                       1.00063
   17 Stretch                 10    26                       1.00037
   18 Stretch                 11    12                       1.37077
   19 Stretch                 13    14                       1.07206
   20 Stretch                 14    15                       1.34401
   21 Stretch                 14    24                       1.40841
   22 Stretch                 15    16                       1.33406
   23 Stretch                 15    32                       1.08996
   24 Stretch                 16    17                       1.39223
   25 Stretch                 17    18                       1.40778
   26 Stretch                 17    24                       1.36244
   27 Stretch                 18    19                       1.25348
   28 Stretch                 18    20                       1.39016
   29 Stretch                 20    21                       1.34884
   30 Stretch                 20    31                       0.99995
   31 Stretch                 21    22                       1.34442
   32 Stretch                 21    23                       1.34177
   33 Stretch                 22    29                       1.00066
   34 Stretch                 22    30                       0.99997
   35 Stretch                 23    24                       1.36468
   36 Bend                     1     2     3               122.61234
   37 Bend                     1     2    12               129.85317
   38 Bend                     2     3     4               111.82324
   39 Bend                     2     3    27               124.10356
   40 Bend                     2    12     5               106.30108
   41 Bend                     2    12    11               125.68031
   42 Bend                     3     2    12               107.31583
   43 Bend                     3     4     5               105.27239
   44 Bend                     4     3    27               124.07320
   45 Bend                     4     5     6               132.19406
   46 Bend                     4     5    12               109.14038
   47 Bend                     5     6    19                84.47654
   48 Bend                     5     6     7               128.54216
   49 Bend                     5     6     8               113.78440
   50 Bend                     5    12    11               127.96567
   51 Bend                     6    19    18                84.68432
   52 Bend                     6     5    12               118.43734
   53 Bend                     6     8     9               121.93295
   54 Bend                     6     8    28               119.07488
   55 Bend                     7     6    19                82.22823
   56 Bend                     7     6     8               117.57966
   57 Bend                     8     6    19               102.15933
   58 Bend                     8     9    10               118.29900
   59 Bend                     8     9    11               127.43590
   60 Bend                     9     8    28               118.99217
   61 Bend                     9    10    25               125.27119
   62 Bend                     9    10    26               125.27156
   63 Bend                     9    11    12               110.29808
   64 Bend                    10     9    11               114.16325
   65 Bend                    13    14    15               131.49892
   66 Bend                    13    14    24               122.74016
   67 Bend                    14    15    16               113.64016
   68 Bend                    14    15    32               123.12138
   69 Bend                    14    24    17               105.88595
   70 Bend                    14    24    23               126.77350
   71 Bend                    15    14    24               105.67917
   72 Bend                    15    16    17               103.82586
   73 Bend                    16    15    32               123.23845
   74 Bend                    16    17    18               130.94100
   75 Bend                    16    17    24               110.72915
   76 Bend                    17    18    19               127.12428
   77 Bend                    17    18    20               116.00660
   78 Bend                    17    24    23               126.84387
   79 Bend                    18    17    24               118.30105
   80 Bend                    18    20    21               119.90427
   81 Bend                    18    20    31               119.99638
   82 Bend                    19    18    20               116.75477
   83 Bend                    20    21    22               113.70597
   84 Bend                    20    21    23               127.06882
   85 Bend                    21    20    31               120.09935
   86 Bend                    21    22    29               125.23280
   87 Bend                    21    22    30               125.30454
   88 Bend                    21    23    24               111.50647
   89 Bend                    22    21    23               119.19968
   90 Bend                    25    10    26               109.45725
   91 Bend                    29    22    30               109.46266
   92 Torsion                  1     2     3     4        -173.09495
   93 Torsion                  1     2     3    27           6.88485
   94 Torsion                  1     2    12     5         175.14340
   95 Torsion                  1     2    12    11          -7.33330
   96 Torsion                  2     3     4     5          -3.61279
   97 Torsion                  2    12     5     4          -2.71183
   98 Torsion                  2    12     5     6        -177.88541
   99 Torsion                  2    12    11     9         179.36424
  100 Torsion                  3     2    12     5           0.50853
  101 Torsion                  3     2    12    11         178.03184
  102 Torsion                  3     4     5     6         178.13487
  103 Torsion                  3     4     5    12           3.86610
  104 Torsion                  4     3     2    12           2.01658
  105 Torsion                  4     5     6    19          81.97596
  106 Torsion                  4     5     6     7           6.49697
  107 Torsion                  4     5     6     8        -177.15092
  108 Torsion                  4     5    12    11         179.84001
  109 Torsion                  5     4     3    27         176.40741
  110 Torsion                  5     6    19    18          87.94279
  111 Torsion                  5     6     8     9           1.90673
  112 Torsion                  5     6     8    28        -178.08937
  113 Torsion                  5    12    11     9          -3.65143
  114 Torsion                  6    19    18    17         -91.12320
  115 Torsion                  6    19    18    20          84.80988
  116 Torsion                  6     5    12    11           4.66643
  117 Torsion                  6     8     9    10         174.77096
  118 Torsion                  6     8     9    11          -1.32619
  119 Torsion                  7     6    19    18        -141.89167
  120 Torsion                  7     6     5    12        -179.66197
  121 Torsion                  7     6     8     9         178.68824
  122 Torsion                  7     6     8    28          -1.30787
  123 Torsion                  8     6    19    18         -25.23840
  124 Torsion                  8     6     5    12          -3.30986
  125 Torsion                  8     9    10    25        -177.87092
  126 Torsion                  8     9    10    26           2.16729
  127 Torsion                  8     9    11    12           1.89114
  128 Torsion                  9     8     6    19          91.18252
  129 Torsion                 10     9     8    28          -5.23293
  130 Torsion                 10     9    11    12        -174.34265
  131 Torsion                 11     9     8    28         178.66992
  132 Torsion                 11     9    10    25          -1.26688
  133 Torsion                 11     9    10    26         178.77133
  134 Torsion                 12     2     3    27        -178.00362
  135 Torsion                 12     5     6    19        -104.18299
  136 Torsion                 13    14    15    16         178.10185
  137 Torsion                 13    14    15    32          -1.91093
  138 Torsion                 13    14    24    17        -179.44676
  139 Torsion                 13    14    24    23          -7.12904
  140 Torsion                 14    15    16    17           4.58294
  141 Torsion                 14    24    17    16          -0.86863
  142 Torsion                 14    24    17    18         177.39182
  143 Torsion                 14    24    23    21        -178.03386
  144 Torsion                 15    14    24    17           3.49588
  145 Torsion                 15    14    24    23         175.81359
  146 Torsion                 15    16    17    18         179.91731
  147 Torsion                 15    16    17    24          -2.11039
  148 Torsion                 16    15    14    24          -5.20327
  149 Torsion                 16    17    18    19          -5.74269
  150 Torsion                 16    17    18    20         178.29793
  151 Torsion                 16    17    24    23        -173.17924
  152 Torsion                 17    16    15    32        -175.40426
  153 Torsion                 17    18    20    21          -2.86608
  154 Torsion                 17    18    20    31         177.14925
  155 Torsion                 17    24    23    21          -7.27925
  156 Torsion                 18    17    24    23           5.08122
  157 Torsion                 18    20    21    22        -177.90128
  158 Torsion                 18    20    21    23           0.22908
  159 Torsion                 19     6     8    28         -88.81358
  160 Torsion                 19    18    17    24         176.41126
  161 Torsion                 19    18    20    21        -179.25872
  162 Torsion                 19    18    20    31           0.75662
  163 Torsion                 20    18    17    24           0.45188
  164 Torsion                 20    21    22    29          -0.27410
  165 Torsion                 20    21    22    30         179.73635
  166 Torsion                 20    21    23    24           4.52710
  167 Torsion                 22    21    20    31           2.08337
  168 Torsion                 22    21    23    24        -177.43402
  169 Torsion                 23    21    20    31        -179.78627
  170 Torsion                 23    21    22    29        -178.56518
  171 Torsion                 23    21    22    30           1.44527
  172 Torsion                 24    14    15    32         174.78395
 
 
            XYZ format geometry
            -------------------
    32
 geometry
 H                    -2.14700084     2.83214631    -1.50479802
 N                    -1.33075480     2.69705931    -0.79380230
 C                    -1.21422567     3.44415102     0.34412429
 N                    -0.06671794     3.20498345     0.97851761
 C                     0.55410399     2.18594728     0.24618271
 C                     1.79166719     1.53498723     0.39541526
 O                     2.62259060     1.64532463     1.32190215
 N                     2.06198154     0.59376963    -0.61216082
 C                     1.20986191     0.38323365    -1.64234903
 N                     1.57579126    -0.42682177    -2.58760133
 N                     0.03635396     0.97094412    -1.85336682
 C                    -0.21367448     1.89839270    -0.87543691
 H                    -2.96343273    -1.97547579    -1.67931655
 N                    -2.59422536    -1.45410090    -0.81840010
 C                    -3.09683421    -0.42260178    -0.11856662
 N                    -2.35076785    -0.07418140     0.93105342
 C                    -1.22955910    -0.89316972     0.82882794
 C                    -0.08424878    -0.99479193     1.64110449
 O                     0.21849949    -0.26784440     2.61634537
 N                     0.84477976    -1.95889489     1.26699024
 C                     0.59053416    -2.76591493     0.21654375
 N                     1.55065297    -3.67987828    -0.00772587
 N                    -0.50146948    -2.75887116    -0.56309363
 C                    -1.34363903    -1.73629383    -0.23529635
 H                     1.04348906    -0.63415799    -3.40913773
 H                     2.43353619    -0.94122609    -2.60767210
 H                    -1.96826998     4.15075738     0.69129377
 H                     2.90887393     0.06335756    -0.56732416
 H                     2.38931713    -3.77970842     0.52892426
 H                     1.53770752    -4.36481296    -0.73617484
 H                     1.69992780    -2.05344486     1.77657745
 H                    -4.02615313     0.08102803    -0.38452220
 
 ==============================================================================
                                internuclear distances
 ------------------------------------------------------------------------------
       center one      |      center two      | atomic units |  angstroms
 ------------------------------------------------------------------------------
    2 N                |   1 H                |     2.06147  |     1.09088
    3 C                |   2 N                |     2.58181  |     1.36624
    4 N                |   3 C                |     2.51868  |     1.33283
    5 C                |   4 N                |     2.64573  |     1.40006
    6 C                |   5 C                |     2.65746  |     1.40627
    7 O                |   6 C                |     2.36101  |     1.24939
    8 N                |   6 C                |     2.65516  |     1.40505
    9 C                |   8 N                |     2.55758  |     1.35341
   10 N                |   9 C                |     2.45198  |     1.29753
   11 N                |   9 C                |     2.51202  |     1.32931
   12 C                |   2 N                |     2.59959  |     1.37565
   12 C                |   5 C                |     2.62543  |     1.38932
   12 C                |  11 N                |     2.59039  |     1.37077
   14 N                |  13 H                |     2.02591  |     1.07206
   15 C                |  14 N                |     2.53982  |     1.34401
   16 N                |  15 C                |     2.52101  |     1.33406
   17 C                |  16 N                |     2.63093  |     1.39223
   18 C                |  17 C                |     2.66033  |     1.40778
   19 O                |  18 C                |     2.36873  |     1.25348
   20 N                |  18 C                |     2.62702  |     1.39016
   21 C                |  20 N                |     2.54893  |     1.34884
   22 N                |  21 C                |     2.54058  |     1.34442
   23 N                |  21 C                |     2.53558  |     1.34177
   24 C                |  14 N                |     2.66150  |     1.40841
   24 C                |  17 C                |     2.57463  |     1.36244
   24 C                |  23 N                |     2.57888  |     1.36468
   25 H                |  10 N                |     1.89091  |     1.00063
   26 H                |  10 N                |     1.89043  |     1.00037
   27 H                |   3 C                |     2.06006  |     1.09014
   28 H                |   8 N                |     1.89027  |     1.00029
   29 H                |  22 N                |     1.89097  |     1.00066
   30 H                |  22 N                |     1.88967  |     0.99997
   31 H                |  20 N                |     1.88963  |     0.99995
   32 H                |  15 C                |     2.05972  |     1.08996
 ------------------------------------------------------------------------------
                         number of included internuclear distances:         34
 ==============================================================================



 ==============================================================================
                                 internuclear angles
 ------------------------------------------------------------------------------
        center 1       |       center 2       |       center 3       |  degrees
 ------------------------------------------------------------------------------
    1 H                |   2 N                |   3 C                |   122.61
    1 H                |   2 N                |  12 C                |   129.85
    3 C                |   2 N                |  12 C                |   107.32
    2 N                |   3 C                |   4 N                |   111.82
    2 N                |   3 C                |  27 H                |   124.10
    4 N                |   3 C                |  27 H                |   124.07
    3 C                |   4 N                |   5 C                |   105.27
    4 N                |   5 C                |   6 C                |   132.19
    4 N                |   5 C                |  12 C                |   109.14
    6 C                |   5 C                |  12 C                |   118.44
    5 C                |   6 C                |   7 O                |   128.54
    5 C                |   6 C                |   8 N                |   113.78
    7 O                |   6 C                |   8 N                |   117.58
    6 C                |   8 N                |   9 C                |   121.93
    6 C                |   8 N                |  28 H                |   119.07
    9 C                |   8 N                |  28 H                |   118.99
    8 N                |   9 C                |  10 N                |   118.30
    8 N                |   9 C                |  11 N                |   127.44
   10 N                |   9 C                |  11 N                |   114.16
    9 C                |  10 N                |  25 H                |   125.27
    9 C                |  10 N                |  26 H                |   125.27
   25 H                |  10 N                |  26 H                |   109.46
    9 C                |  11 N                |  12 C                |   110.30
    2 N                |  12 C                |   5 C                |   106.30
    2 N                |  12 C                |  11 N                |   125.68
    5 C                |  12 C                |  11 N                |   127.97
   13 H                |  14 N                |  15 C                |   131.50
   13 H                |  14 N                |  24 C                |   122.74
   15 C                |  14 N                |  24 C                |   105.68
   14 N                |  15 C                |  16 N                |   113.64
   14 N                |  15 C                |  32 H                |   123.12
   16 N                |  15 C                |  32 H                |   123.24
   15 C                |  16 N                |  17 C                |   103.83
   16 N                |  17 C                |  18 C                |   130.94
   16 N                |  17 C                |  24 C                |   110.73
   18 C                |  17 C                |  24 C                |   118.30
   17 C                |  18 C                |  19 O                |   127.12
   17 C                |  18 C                |  20 N                |   116.01
   19 O                |  18 C                |  20 N                |   116.75
   18 C                |  20 N                |  21 C                |   119.90
   18 C                |  20 N                |  31 H                |   120.00
   21 C                |  20 N                |  31 H                |   120.10
   20 N                |  21 C                |  22 N                |   113.71
   20 N                |  21 C                |  23 N                |   127.07
   22 N                |  21 C                |  23 N                |   119.20
   21 C                |  22 N                |  29 H                |   125.23
   21 C                |  22 N                |  30 H                |   125.30
   29 H                |  22 N                |  30 H                |   109.46
   21 C                |  23 N                |  24 C                |   111.51
   14 N                |  24 C                |  17 C                |   105.89
   14 N                |  24 C                |  23 N                |   126.77
   17 C                |  24 C                |  23 N                |   126.84
 ------------------------------------------------------------------------------
                            number of included internuclear angles:         52
 ==============================================================================



  library name resolved from: environment
  library file name is: <
 /scratch/01032/hliu/works/nwchem_blue/nwchem-src-common512/src/basis/libraries/
 >
  
                                 NWChem SCF Module
                                 -----------------
 
 
                                     GG stack
 
 

  ao basis        = "ao basis"
  functions       =  1242
  atoms           =    32
  closed shells   =    78
  open shells     =     0
  charge          =   0.00
  wavefunction    = RHF 
  input vectors   = atomic
  output vectors  = ./gg-stack.movecs
  use symmetry    = F
  symmetry adapt  = F


 Summary of "ao basis" -> "ao basis" (spherical)
 ------------------------------------------------------------------------------
       Tag                 Description            Shells   Functions and Types
 ---------------- ------------------------------  ------  ---------------------
 H                        aug-cc-pvtz                9       23   4s3p2d
 N                        aug-cc-pvtz               14       46   5s4p3d2f
 C                        aug-cc-pvtz               14       46   5s4p3d2f
 O                        aug-cc-pvtz               14       46   5s4p3d2f



 Forming initial guess at      17.2s


 !! The overlap matrix has  22 vectors deemed linearly dependent with
    eigenvalues:
 5.92D-07 6.97D-07 1.18D-06 1.46D-06 1.59D-06 1.66D-06 1.99D-06 2.41D-06
 2.75D-06 3.18D-06 3.61D-06 3.76D-06 4.57D-06 5.12D-06 5.64D-06 6.32D-06
 6.92D-06 7.67D-06 8.15D-06 8.48D-06 9.36D-06 9.79D-06
 
 
      Superposition of Atomic Density Guess
      -------------------------------------
 
 Sum of atomic energies:       -1074.36907108
 
      Non-variational initial energy
      ------------------------------

 Total energy =   -1089.222059
 1-e energy   =   -5256.009569
 2-e energy   =    2258.977272
 HOMO         =      -0.222850
 LUMO         =      -0.009002
 

 Starting SCF solution at      24.5s



 ----------------------------------------------
         Quadratically convergent ROHF

 Convergence threshold     :          1.000E-06
 Maximum no. of iterations :          100
 Final Fock-matrix accuracy:          1.000E-10
 ----------------------------------------------


              iter       energy          gnorm     gmax       time
             ----- ------------------- --------- --------- --------
                 1    -1078.5754627896  2.84D+00  2.56D-01     29.2
                 2    -1079.0206780326  1.04D+00  4.64D-02     37.1
                 3    -1079.1133271324  1.02D-01  7.87D-03     47.7
                 4    -1079.1147878044  6.95D-03  7.05D-04     61.2
                 5    -1079.1147982782  2.99D-05  3.41D-06     84.9
                 6    -1079.1147982784  6.79D-08  5.44D-09    111.7


       Final RHF  results 
       ------------------ 

         Total SCF energy =  -1079.114798278395
      One-electron energy =  -5267.894316266760
      Two-electron energy =   2280.969280398708
 Nuclear repulsion energy =   1907.810237589657

        Time for solution =     86.9s


             Final eigenvalues
             -----------------

              1      
    1  -20.4999
    2  -20.4946
    3  -15.6369
    4  -15.6362
    5  -15.6275
    6  -15.6200
    7  -15.6199
    8  -15.6084
    9  -15.5691
   10  -15.5562
   11  -15.5503
   12  -15.5398
   13  -11.4053
   14  -11.3865
   15  -11.3520
   16  -11.3460
   17  -11.3214
   18  -11.3121
   19  -11.3103
   20  -11.2917
   21  -11.2394
   22  -11.2262
   23   -1.3940
   24   -1.3849
   25   -1.3470
   26   -1.3303
   27   -1.3284
   28   -1.3263
   29   -1.2314
   30   -1.2301
   31   -1.2155
   32   -1.2010
   33   -1.1648
   34   -1.1437
   35   -1.0328
   36   -1.0167
   37   -0.9103
   38   -0.9043
   39   -0.8993
   40   -0.8930
   41   -0.8313
   42   -0.8105
   43   -0.8027
   44   -0.7918
   45   -0.7662
   46   -0.7524
   47   -0.7449
   48   -0.7374
   49   -0.7065
   50   -0.6914
   51   -0.6738
   52   -0.6723
   53   -0.6555
   54   -0.6452
   55   -0.6331
   56   -0.6146
   57   -0.6076
   58   -0.5920
   59   -0.5872
   60   -0.5831
   61   -0.5801
   62   -0.5794
   63   -0.5482
   64   -0.5271
   65   -0.4941
   66   -0.4795
   67   -0.4528
   68   -0.4394
   69   -0.4333
   70   -0.4302
   71   -0.4187
   72   -0.4169
   73   -0.4139
   74   -0.4060
   75   -0.4012
   76   -0.3835
   77   -0.2932
   78   -0.2776
   79    0.0030
   80    0.0161
   81    0.0223
   82    0.0275
   83    0.0346
   84    0.0390
   85    0.0485
   86    0.0515
   87    0.0567
   88    0.0624

 center of mass
 --------------
 x =  -0.00574069 y =   0.04099647 z =   0.04877831

 moments of inertia (a.u.)
 ------------------
        5908.724513717324          -0.000000000000          -0.000000000000
          -0.000000000000        4347.904367270642          -0.000000000000
          -0.000000000000          -0.000000000000        6891.143597130693
 
  Mulliken analysis of the total density
  --------------------------------------

    Atom       Charge   Shell Charges
 -----------   ------   -------------------------------------------------------
    1 H    1     0.93   0.22  0.44  0.14 -0.00  0.01  0.04  0.05  0.00  0.02
    2 N    7     7.02   1.95  0.90  0.19  0.45 -0.15  1.00  1.94  0.67  0.01  0.01  0.07 -0.02  0.01  0.00
    3 C    6     6.27   1.96  0.82  0.16  0.60 -0.06  0.78  1.41  0.35  0.02  0.04  0.16 -0.03  0.02  0.04
    4 N    7     7.70   1.95  0.95  0.20  0.70  0.11  0.94  1.80  0.86  0.09  0.01  0.08  0.01  0.00  0.00
    5 C    6     5.50   1.96  0.81  0.16  0.09 -0.02  0.83  1.52  0.22 -0.04  0.03 -0.00  0.02  0.02 -0.09
    6 C    6     5.25   1.96  0.82  0.17  0.15 -0.05  0.75  1.30  0.10 -0.06  0.05  0.13 -0.08  0.02 -0.02
    7 O    8     9.08   1.95  1.02  0.23  0.73  0.18  1.23  2.14  1.41  0.13  0.00  0.03  0.02  0.00  0.00
    8 N    7     6.82   1.95  0.90  0.19  0.46 -0.09  1.03  1.95  0.51 -0.04  0.01  0.05 -0.09  0.00 -0.00
    9 C    6     5.26   1.96  0.82  0.17  0.33  0.00  0.78  1.32 -0.12 -0.03  0.06  0.15 -0.22  0.02  0.01
   10 N    7     7.65   1.95  0.89  0.19  0.62  0.06  1.05  1.93  0.93  0.01  0.01  0.03 -0.02  0.00  0.00
   11 N    7     7.71   1.95  0.93  0.20  0.63  0.23  0.97  1.86  0.81  0.07  0.01  0.06 -0.03  0.00 -0.01
   12 C    6     5.52   1.96  0.82  0.17  0.14 -0.00  0.78  1.44  0.12  0.01  0.04  0.11 -0.06  0.02 -0.03
   13 H    1     0.92   0.23  0.44  0.14  0.00  0.01  0.04  0.04  0.00  0.02
   14 N    7     7.20   1.95  0.90  0.19  0.52 -0.06  1.00  1.93  0.67  0.02  0.01  0.07 -0.01  0.01 -0.00
   15 C    6     6.17   1.96  0.82  0.16  0.56 -0.10  0.78  1.41  0.34  0.01  0.04  0.16 -0.04  0.02  0.04
   16 N    7     7.60   1.95  0.95  0.20  0.64  0.08  0.94  1.81  0.87  0.07  0.01  0.08 -0.00  0.00  0.00
   17 C    6     5.64   1.96  0.81  0.16  0.07  0.02  0.84  1.52  0.26  0.01  0.03 -0.01  0.05  0.02 -0.10
   18 C    6     5.22   1.96  0.82  0.17  0.21 -0.01  0.75  1.30  0.05 -0.09  0.05  0.12 -0.12  0.02 -0.02
   19 O    8     9.04   1.95  1.02  0.24  0.73  0.14  1.23  2.13  1.42  0.12  0.00  0.03  0.02  0.00  0.00
   20 N    7     6.81   1.95  0.90  0.19  0.45 -0.02  1.03  1.96  0.44 -0.06  0.01  0.05 -0.09  0.00 -0.00
   21 C    6     5.40   1.96  0.81  0.17  0.46  0.01  0.76  1.32 -0.10 -0.01  0.05  0.17 -0.25  0.02  0.02
   22 N    7     7.71   1.95  0.89  0.19  0.66  0.10  1.04  1.92  0.93  0.00  0.01  0.03 -0.01  0.00  0.00
   23 N    7     7.66   1.95  0.93  0.20  0.63  0.19  0.97  1.86  0.80  0.06  0.01  0.06 -0.00  0.00 -0.01
   24 C    6     5.37   1.96  0.82  0.17  0.15 -0.02  0.78  1.45  0.03 -0.04  0.04  0.11 -0.08  0.02 -0.03
   25 H    1     0.96   0.26  0.44  0.14  0.01  0.02  0.05  0.02  0.00  0.02
   26 H    1     0.95   0.26  0.46  0.12 -0.00  0.02  0.05  0.02  0.01  0.02
   27 H    1     0.50   0.26  0.33 -0.10  0.01  0.01  0.00 -0.01  0.00 -0.01
   28 H    1     0.90   0.26  0.49  0.03  0.01  0.02  0.06  0.01  0.01  0.03
   29 H    1     0.92   0.26  0.45  0.10 -0.00  0.02  0.05  0.01  0.01  0.02
   30 H    1     0.91   0.26  0.44  0.10  0.00  0.02  0.05  0.02  0.00  0.02
   31 H    1     0.92   0.26  0.48  0.04  0.01  0.02  0.06  0.02  0.01  0.03
   32 H    1     0.49   0.26  0.34 -0.11  0.00  0.01  0.00 -0.01  0.00 -0.01
 
       Multipole analysis of the density wrt the origin
       ------------------------------------------------
 
     L   x y z        total         open         nuclear
     -   - - -        -----         ----         -------
     0   0 0 0      0.000000      0.000000    156.000000
 
     1   1 0 0     -0.238640      0.000000      0.000000
     1   0 1 0     -3.381195      0.000000      0.000000
     1   0 0 1     -4.323027      0.000000      0.000000
 
     2   2 0 0    -75.788348      0.000000   1438.652767
     2   1 1 0    -22.811072      0.000000    -54.397267
     2   1 0 1     -0.675283      0.000000     -0.000601
     2   0 2 0    -83.929611      0.000000   2233.492866
     2   0 1 1     -7.186266      0.000000      7.472150
     2   0 0 2   -100.284891      0.000000    892.092986
 
 
 
                   Four-Index Transformation
                   -------------------------
          Number of basis functions:           1242
          Number of shells:                     398
          Number of occupied orbitals:           78
          Number of occ. correlated orbitals:    56
          Block length:                          16
          Superscript MO index range:     23 -   78
          Subscript MO index range:       23 - 1220
          MO coefficients read from:  ./gg-stack.movecs        
          Number of operator matrices in core: 3192
          Half-transformed integrals produced
 
     Pass:    1     Index range:   23  -   78     Time:     20.01
 ------------------------------------------
 MP2 Energy (coupled cluster initial guess)
 ------------------------------------------
 Reference energy:          -1079.114798278394801
 MP2 Corr. energy:             -4.106930922568058
 Total MP2 energy:          -1083.221729200962955


 ****************************************************************************
              the segmented parallel ccsd program: 5120 nodes
 ****************************************************************************




 level of theory    ccsd
 number of core        22
 number of occupied    56
 number of virtual   1142
 number of deleted      0
 total functions     1242
 number of shells     398
 basis label          566



   ***** ccsd parameters *****
   iprt   =     0
   convi  =  0.100E-05
   maxit  =    20
   mxvec  =     5
 memory            3301443444
  IO offset    20.0000000000000     
  IO error message >End of File
  file_read_ga: failing writing to ./gg-stack.t2
  Failed reading restart vector from ./gg-stack.t2
  Using MP2 initial guess vector 


-------------------------------------------------------------------------
 iter     correlation     delta       rms       T2     Non-T2      Main
             energy      energy      error      ampl     ampl      Block
                                                time     time      time
-------------------------------------------------------------------------
 g_st2 size:   18519 MB
 mem. avail    25110 MB
Memory based method: ST2 is allocated
 ST2 array is replicated     43.21s
   1     -3.9507296765 -3.951D+00  1.590D+00   452.60     0.07   189.57
 g_st2 size:   18519 MB
 mem. avail    25110 MB
Memory based method: ST2 is allocated
 ST2 array is replicated     26.15s
   2     -4.0907476510 -1.400D-01  9.940D-01   434.76     0.04   189.53
 g_st2 size:   18519 MB
 mem. avail    25110 MB
Memory based method: ST2 is allocated
 ST2 array is replicated     26.22s
   3     -4.0737596844  1.699D-02  1.303D-01   435.14     0.05   189.48
 g_st2 size:   18519 MB
 mem. avail    25110 MB
Memory based method: ST2 is allocated
 ST2 array is replicated     26.36s
   4     -4.0818058681 -8.046D-03  6.462D-02   433.07     0.06   189.49
 g_st2 size:   18519 MB
 mem. avail    25110 MB
Memory based method: ST2 is allocated
 ST2 array is replicated     26.29s
   5     -4.0873204336 -5.515D-03  2.401D-02   433.03     0.07   189.46
 g_st2 size:   18519 MB
 mem. avail    25110 MB
Memory based method: ST2 is allocated
 ST2 array is replicated     26.56s
   6     -4.0876385483 -3.181D-04  2.817D-03   433.81     0.06   189.48
 g_st2 size:   18519 MB
 mem. avail    25110 MB
Memory based method: ST2 is allocated
 ST2 array is replicated     26.27s
   7     -4.0875125343  1.260D-04  6.553D-03   437.30     0.06   189.47
 g_st2 size:   18519 MB
 mem. avail    25110 MB
Memory based method: ST2 is allocated
 ST2 array is replicated     26.51s
   8     -4.0875881332 -7.560D-05  2.493D-03   437.70     0.06   189.43
 g_st2 size:   18519 MB
 mem. avail    25110 MB
Memory based method: ST2 is allocated
 ST2 array is replicated     26.36s
   9     -4.0874935721  9.456D-05  1.872D-03   436.78     0.06   189.62
 g_st2 size:   18519 MB
 mem. avail    25110 MB
Memory based method: ST2 is allocated
 ST2 array is replicated     26.41s
  10     -4.0875029901 -9.418D-06  7.930D-04   437.47     0.09   189.54
 g_st2 size:   18519 MB
 mem. avail    25110 MB
Memory based method: ST2 is allocated
 ST2 array is replicated     26.30s
  11     -4.0875256050 -2.261D-05  5.042D-04   436.74     0.06   189.52
 g_st2 size:   18519 MB
 mem. avail    25110 MB
Memory based method: ST2 is allocated
 ST2 array is replicated     26.41s
  12     -4.0875337018 -8.097D-06  1.506D-04   437.13     0.06   189.55
 g_st2 size:   18519 MB
 mem. avail    25110 MB
Memory based method: ST2 is allocated
 ST2 array is replicated     26.34s
  13     -4.0875356189 -1.917D-06  8.648D-05   437.18     0.06   189.61
 g_st2 size:   18519 MB
 mem. avail    25110 MB
Memory based method: ST2 is allocated
 ST2 array is replicated     26.44s
  14     -4.0875373492 -1.730D-06  2.343D-05   435.99     0.06   189.56
 g_st2 size:   18519 MB
 mem. avail    25110 MB
Memory based method: ST2 is allocated
 ST2 array is replicated     26.36s
  15     -4.0875364072  9.420D-07  1.937D-05   435.26     0.06   189.56
 g_st2 size:   18519 MB
 mem. avail    25110 MB
Memory based method: ST2 is allocated
 ST2 array is replicated     26.39s
  16     -4.0875363477  5.950D-08  1.111D-05   435.20     0.06   189.57
 g_st2 size:   18519 MB
 mem. avail    25110 MB
Memory based method: ST2 is allocated
 ST2 array is replicated     26.52s
  17     -4.0875362649  8.281D-08  7.350D-06   439.34     0.52   189.46
 g_st2 size:   18519 MB
 mem. avail    25110 MB
Memory based method: ST2 is allocated
 ST2 array is replicated     26.48s
  18     -4.0875362054  5.951D-08  5.002D-06   437.11     0.06   188.52
 g_st2 size:   18519 MB
 mem. avail    25110 MB
Memory based method: ST2 is allocated
 ST2 array is replicated     26.41s
  19     -4.0875361823  2.303D-08  1.300D-06   435.34     0.06   187.86
 g_st2 size:   18519 MB
 mem. avail    25110 MB
Memory based method: ST2 is allocated
 ST2 array is replicated     26.41s
  20     -4.0875361761  6.201D-09  3.458D-07   436.06     0.06   187.94
                  *************converged*************
-------------------------------------------------------------------------

 -----------
 CCSD Energy
 -----------
 Reference energy:           -1079.114798278394801
 CCSD corr. energy:             -4.087536176139623
 Total CCSD energy:          -1083.202334454534366


 --------------------------------
 Spin Component Scaled (SCS) CCSD
 --------------------------------
 Same spin contribution:                 -0.961716288806739
 Same spin scaling factor:                1.130000000000000
 Opposite spin contribution:             -3.125819887332884
 Opposite spin scaling fact.:             1.270000000000000
 SCS-CCSD correlation energy:            -5.056530663264378
 Total SCS-CCSD energy:               -1084.171328941659112
 
 routine      calls  cpu(0)   cpu-min  cpu-ave  cpu-max   i/o 
 aoccsd          1     2.08     2.08     2.08     2.08    0.00
 iterdrv         1   387.98   387.84   388.45   388.73    0.00
 pampt          20   558.49   558.44   558.52   558.60    0.00
 t2pm           20     8.77     8.67     8.73     8.77    0.00
 sxy            20   390.47     4.61   991.49  1938.08    0.00
 ints     21444160   837.58   441.72   716.62  1028.51    0.00
 t2eri         320  2453.75  1323.78  1986.33  2654.11    0.00
 idx2          320    94.21    75.46    85.60    99.93    0.00
 idx34          20     5.78     0.00     1.74     5.83    0.00
 ht2pm          20    11.82    11.82    11.82    11.82    0.00
 itm            20  4371.39  4371.39  4371.43  4371.46    0.00
 pdiis          20     1.35     0.61     0.88     1.49    0.00
 Total              9123.67  9122.77  9123.69  9124.53    0.00

 Task  times  cpu:     8940.1s     wall:     9256.9s
 
 
                                NWChem Input Module
                                -------------------
 
 
 Summary of allocated global arrays
-----------------------------------
  No active global arrays



                         GA Statistics for process    0
                         ------------------------------

       create   destroy   get      put      acc     scatter   gather  read&inc
calls:  753      753     5.72e+04 7.72e+04 1.13e+05    0        0     6.52e+06 
number of processes/call 1.27e+01 2.51e+01 1.63e+01 0.00e+00 0.00e+00
bytes total:             8.50e+11 6.92e+09 1.13e+11 0.00e+00 0.00e+00 5.22e+07
bytes remote:            8.34e+11 2.14e+09 6.35e+10 0.00e+00 0.00e+00 0.00e+00
Max memory consumed for GA by this process: 326691592 bytes
 
MA_summarize_allocated_blocks: starting scan ...
MA_summarize_allocated_blocks: scan completed: 0 heap blocks, 0 stack blocks
MA usage statistics:

	allocation statistics:
					      heap	     stack
					      ----	     -----
	current number of blocks	         0	         0
	maximum number of blocks	        16	        29
	current total bytes		         0	         0
	maximum total bytes		    205080	25742949368
	maximum total K-bytes		       206	  25742950
	maximum total M-bytes		         1	     25743
 
 
                                     CITATION
                                     --------
                Please cite the following reference when publishing
                           results obtained with NWChem:
 
                 M. Valiev, E.J. Bylaska, N. Govind, K. Kowalski,
              T.P. Straatsma, H.J.J. van Dam, D. Wang, J. Nieplocha,
                        E. Apra, T.L. Windus, W.A. de Jong
                 "NWChem: a comprehensive and scalable open-source
                  solution for large scale molecular simulations"
                      Comput. Phys. Commun. 181, 1477 (2010)
                           doi:10.1016/j.cpc.2010.04.018
 
                                      AUTHORS
                                      -------
          E. Apra, E. J. Bylaska, W. A. de Jong, N. Govind, K. Kowalski,
       T. P. Straatsma, M. Valiev, H. J. J. van Dam, D. Wang, T. L. Windus,
        J. Hammond, J. Autschbach, K. Bhaskaran-Nair, J. Brabec, K. Lopata,
       S. A. Fischer, S. Krishnamoorthy, W. Ma, M. Klemm, O. Villa, Y. Chen,
    V. Anisimov, F. Aquino, S. Hirata, M. T. Hackler, T. Risthaus, M. Malagoli,
       A. Marenich, A. Otero-de-la-Roza, J. Mullin, P. Nichols, R. Peverati,
     J. Pittner, Y. Zhao, P.-D. Fan, A. Fonari, M. Williamson, R. J. Harrison,
       J. R. Rehr, M. Dupuis, D. Silverstein, D. M. A. Smith, J. Nieplocha,
        V. Tipparaju, M. Krishnan, B. E. Van Kuiken, A. Vazquez-Mayagoitia,
        L. Jensen, M. Swart, Q. Wu, T. Van Voorhis, A. A. Auer, M. Nooijen,
      L. D. Crosby, E. Brown, G. Cisneros, G. I. Fann, H. Fruchtl, J. Garza,
        K. Hirao, R. A. Kendall, J. A. Nichols, K. Tsemekhman, K. Wolinski,
     J. Anchell, D. E. Bernholdt, P. Borowski, T. Clark, D. Clerc, H. Dachsel,
   M. J. O. Deegan, K. Dyall, D. Elwood, E. Glendening, M. Gutowski, A. C. Hess,
         J. Jaffe, B. G. Johnson, J. Ju, R. Kobayashi, R. Kutteh, Z. Lin,
   R. Littlefield, X. Long, B. Meng, T. Nakajima, S. Niu, L. Pollack, M. Rosing,
   K. Glaesemann, G. Sandrone, M. Stave, H. Taylor, G. Thomas, J. H. van Lenthe,
                               A. T. Wong, Z. Zhang.

 Total times  cpu:     8946.8s     wall:     9263.7s
TACC:  Shutdown complete. Exiting. 
